# vtk DataFile Version 3.0
CityLBM Demo - Single Building Wind Simulation
ASCII
DATASET UNSTRUCTURED_GRID

POINTS 125 float
0.0 0.0 0.0
1.0 0.0 0.0
2.0 0.0 0.0
3.0 0.0 0.0
4.0 0.0 0.0
0.0 1.0 0.0
1.0 1.0 0.0
2.0 1.0 0.0
3.0 1.0 0.0
4.0 1.0 0.0
0.0 2.0 0.0
1.0 2.0 0.0
2.0 2.0 0.0
3.0 2.0 0.0
4.0 2.0 0.0
0.0 3.0 0.0
1.0 3.0 0.0
2.0 3.0 0.0
3.0 3.0 0.0
4.0 3.0 0.0
0.0 4.0 0.0
1.0 4.0 0.0
2.0 4.0 0.0
3.0 4.0 0.0
4.0 4.0 0.0
0.0 0.0 1.0
1.0 0.0 1.0
2.0 0.0 1.0
3.0 0.0 1.0
4.0 0.0 1.0
0.0 1.0 1.0
1.0 1.0 1.0
2.0 1.0 1.0
3.0 1.0 1.0
4.0 1.0 1.0
0.0 2.0 1.0
1.0 2.0 1.0
2.0 2.0 1.0
3.0 2.0 1.0
4.0 2.0 1.0
0.0 3.0 1.0
1.0 3.0 1.0
2.0 3.0 1.0
3.0 3.0 1.0
4.0 3.0 1.0
0.0 4.0 1.0
1.0 4.0 1.0
2.0 4.0 1.0
3.0 4.0 1.0
4.0 4.0 1.0
0.0 0.0 2.0
1.0 0.0 2.0
2.0 0.0 2.0
3.0 0.0 2.0
4.0 0.0 2.0
0.0 1.0 2.0
1.0 1.0 2.0
2.0 1.0 2.0
3.0 1.0 2.0
4.0 1.0 2.0
0.0 2.0 2.0
1.0 2.0 2.0
2.0 2.0 2.0
3.0 2.0 2.0
4.0 2.0 2.0
0.0 3.0 2.0
1.0 3.0 2.0
2.0 3.0 2.0
3.0 3.0 2.0
4.0 3.0 2.0
0.0 4.0 2.0
1.0 4.0 2.0
2.0 4.0 2.0
3.0 4.0 2.0
4.0 4.0 2.0
0.0 0.0 3.0
1.0 0.0 3.0
2.0 0.0 3.0
3.0 0.0 3.0
4.0 0.0 3.0
0.0 1.0 3.0
1.0 1.0 3.0
2.0 1.0 3.0
3.0 1.0 3.0
4.0 1.0 3.0
0.0 2.0 3.0
1.0 2.0 3.0
2.0 2.0 3.0
3.0 2.0 3.0
4.0 2.0 3.0
0.0 3.0 3.0
1.0 3.0 3.0
2.0 3.0 3.0
3.0 3.0 3.0
4.0 3.0 3.0
0.0 4.0 3.0
1.0 4.0 3.0
2.0 4.0 3.0
3.0 4.0 3.0
4.0 4.0 3.0
0.0 0.0 4.0
1.0 0.0 4.0
2.0 0.0 4.0
3.0 0.0 4.0
4.0 0.0 4.0
0.0 1.0 4.0
1.0 1.0 4.0
2.0 1.0 4.0
3.0 1.0 4.0
4.0 1.0 4.0
0.0 2.0 4.0
1.0 2.0 4.0
2.0 2.0 4.0
3.0 2.0 4.0
4.0 2.0 4.0
0.0 3.0 4.0
1.0 3.0 4.0
2.0 3.0 4.0
3.0 3.0 4.0
4.0 3.0 4.0
0.0 4.0 4.0
1.0 4.0 4.0
2.0 4.0 4.0
3.0 4.0 4.0
4.0 4.0 4.0

POINT_DATA 125

VECTORS velocity float
5.0 0.0 0.0
4.8 0.2 0.0
4.5 0.5 0.0
4.2 0.8 0.0
4.0 1.0 0.0
4.8 -0.2 0.0
4.6 0.0 0.0
4.3 0.3 0.0
4.0 0.6 0.0
3.8 0.8 0.0
4.5 -0.5 0.0
4.3 -0.3 0.0
4.0 0.0 0.0
3.7 0.3 0.0
3.5 0.5 0.0
4.2 -0.8 0.0
4.0 -0.6 0.0
3.7 -0.3 0.0
3.4 0.0 0.0
3.2 0.2 0.0
4.0 -1.0 0.0
3.8 -0.8 0.0
3.5 -0.5 0.0
3.2 -0.2 0.0
3.0 0.0 0.0
5.0 0.0 0.0
4.8 0.2 0.1
4.5 0.5 0.1
4.2 0.8 0.1
4.0 1.0 0.1
4.8 -0.2 0.1
4.6 0.0 0.1
4.3 0.3 0.1
4.0 0.6 0.1
3.8 0.8 0.1
4.5 -0.5 0.1
4.3 -0.3 0.1
4.0 0.0 0.1
3.7 0.3 0.1
3.5 0.5 0.1
4.2 -0.8 0.1
4.0 -0.6 0.1
3.7 -0.3 0.1
3.4 0.0 0.1
3.2 0.2 0.1
4.0 -1.0 0.1
3.8 -0.8 0.1
3.5 -0.5 0.1
3.2 -0.2 0.1
3.0 0.0 0.1
5.0 0.0 0.0
4.8 0.2 0.0
4.5 0.5 0.0
4.2 0.8 0.0
4.0 1.0 0.0
4.8 -0.2 0.0
4.6 0.0 0.0
4.3 0.3 0.0
4.0 0.6 0.0
3.8 0.8 0.0
4.5 -0.5 0.0
4.3 -0.3 0.0
4.0 0.0 0.0
3.7 0.3 0.0
3.5 0.5 0.0
4.2 -0.8 0.0
4.0 -0.6 0.0
3.7 -0.3 0.0
3.4 0.0 0.0
3.2 0.2 0.0
4.0 -1.0 0.0
3.8 -0.8 0.0
3.5 -0.5 0.0
3.2 -0.2 0.0
3.0 0.0 0.0
5.0 0.0 -0.1
4.8 0.2 -0.1
4.5 0.5 -0.1
4.2 0.8 -0.1
4.0 1.0 -0.1
4.8 -0.2 -0.1
4.6 0.0 -0.1
4.3 0.3 -0.1
4.0 0.6 -0.1
3.8 0.8 -0.1
4.5 -0.5 -0.1
4.3 -0.3 -0.1
4.0 0.0 -0.1
3.7 0.3 -0.1
3.5 0.5 -0.1
4.2 -0.8 -0.1
4.0 -0.6 -0.1
3.7 -0.3 -0.1
3.4 0.0 -0.1
3.2 0.2 -0.1
4.0 -1.0 -0.1
3.8 -0.8 -0.1
3.5 -0.5 -0.1
3.2 -0.2 -0.1
3.0 0.0 -0.1
5.0 0.0 0.0
4.8 0.2 0.0
4.5 0.5 0.0
4.2 0.8 0.0
4.0 1.0 0.0
4.8 -0.2 0.0
4.6 0.0 0.0
4.3 0.3 0.0
4.0 0.6 0.0
3.8 0.8 0.0
4.5 -0.5 0.0
4.3 -0.3 0.0
4.0 0.0 0.0
3.7 0.3 0.0
3.5 0.5 0.0
4.2 -0.8 0.0
4.0 -0.6 0.0
3.7 -0.3 0.0
3.4 0.0 0.0
3.2 0.2 0.0
4.0 -1.0 0.0
3.8 -0.8 0.0
3.5 -0.5 0.0
3.2 -0.2 0.0
3.0 0.0 0.0

SCALARS pressure float 1
LOOKUP_TABLE default
101325.0
101320.0
101315.0
101310.0
101305.0
101320.0
101315.0
101310.0
101305.0
101300.0
101315.0
101310.0
101305.0
101300.0
101295.0
101310.0
101305.0
101300.0
101295.0
101290.0
101305.0
101300.0
101295.0
101290.0
101285.0
101325.0
101320.0
101315.0
101310.0
101305.0
101320.0
101315.0
101310.0
101305.0
101300.0
101315.0
101310.0
101305.0
101300.0
101295.0
101310.0
101305.0
101300.0
101295.0
101290.0
101305.0
101300.0
101295.0
101290.0
101285.0
101325.0
101320.0
101315.0
101310.0
101305.0
101320.0
101315.0
101310.0
101305.0
101300.0
101315.0
101310.0
101305.0
101300.0
101295.0
101310.0
101305.0
101300.0
101295.0
101290.0
101305.0
101300.0
101295.0
101290.0
101285.0
101325.0
101320.0
101315.0
101310.0
101305.0
101320.0
101315.0
101310.0
101305.0
101300.0
101315.0
101310.0
101305.0
101300.0
101295.0
101310.0
101305.0
101300.0
101295.0
101290.0
101305.0
101300.0
101295.0
101290.0
101285.0
101325.0
101320.0
101315.0
101310.0
101305.0
101320.0
101315.0
101310.0
101305.0
101300.0
101315.0
101310.0
101305.0
101300.0
101295.0
101310.0
101305.0
101300.0
101295.0
101290.0
101305.0
101300.0
101295.0
101290.0
101285.0
